26
Energy = -2155.935897674
C    -1.0290441   -0.9471117   -1.9865887 
C    -2.2505436   -0.7922495    0.1582250 
C    -0.2593185   -2.2544373    0.0162178 
O    -1.3454085    0.8783278   -3.5342318 
O    -1.1347371    1.1483476    1.0151618 
O     0.8453748   -2.7999130    2.0922098 
O    -0.2780587    1.3040005   -1.6070564 
O    -3.2498211    0.8000765    1.6534429 
C    -0.9188318    0.5115628   -2.4417824 
C    -2.2565356    0.4618854    1.0159078 
C     0.5342286   -1.9274094    1.2848894 
N    -0.9221422   -1.0235290   -0.5013883 
Fe    0.2526900    0.4497192    0.0039380 
O     1.8221685   -0.2815654   -1.0936915 
H    -1.9555949   -1.4065777   -2.3473606 
H    -0.1824638   -1.4867161   -2.4264081 
H    -2.5130292   -1.6526686    0.7833244 
H    -3.0320380   -0.6959329   -0.6040366 
H     0.4617231   -2.6044401   -0.7316186 
H    -0.9840969   -3.0551564    0.1969690 
H     2.1227503    0.3853924   -1.7373941 
H     2.5891208   -0.4447721   -0.5150575 
O     0.9052095   -0.6681693    1.3941789 
O     1.4573655    1.9796179    0.5273073 
H     1.0868407    2.8424014    0.2685815 
H     1.5840897    2.0352695    1.4913642 